# vtk DataFile Version 3.0
VTK
ASCII
DATASET STRUCTURED_POINTS
DIMENSIONS                             256 256 1
ORIGIN                                 0 0 0
SPACING                                1 1 1
POINT_DATA                             65536
SCALARS  scalars  float                1
LOOKUP_TABLE default
0.129056
 0.114811
 0.047247
 0.018134
 0.052069
 0.065871
 0.057845
 0.063642
 0.068474
 0.039119
 0.009625
 0.034426
 0.081738
 0.096641
 0.090000
 0.077131
 0.058156
 0.019480
 -0.008890
 -0.016675
 -0.015457
 -0.019678
 -0.018567
 -0.006553
 0.003474
 0.011592
 0.027089
 0.048681
 0.042257
 0.011310
 -0.009340
 -0.009128
 0.007739
 0.024102
 0.039707
 0.055451
 0.067950
 0.074555
 0.058109
 0.032707
 0.011185
 -0.000248
 -0.005711
 -0.009478
 -0.003799
 0.017541
 0.029496
 0.015558
 -0.007521
 0.006926
 0.035890
 0.030449
 -0.007521
 -0.024541
 0.004726
 0.049392
 0.072994
 0.055675
 0.015670
 -0.003530
 0.011975
 0.050087
 0.072580
 0.061179
 0.032927
 0.047154
 0.095842
 0.118293
 0.092043
 0.057813
 0.012121
 -0.001554
 0.020607
 0.069879
 0.108212
 0.112920
 0.087846
 0.057758
 0.047805
 0.041488
 0.013426
 -0.012082
 0.006661
 0.058468
 0.098568
 0.097855
 0.083034
 0.041133
 0.013545
 0.028700
 0.027666
 -0.003705
 -0.017980
 0.009672
 0.058537
 0.053170
 0.013427
 0.013086
 0.068539
 0.117676
 0.101064
 0.050465
 0.029863
 0.027654
 0.017018
 0.005588
 0.012811
 0.044774
 0.077093
 0.072600
 0.038043
 0.020979
 0.026149
 0.023778
 -0.001466
 -0.019988
 -0.011216
 0.000231
 0.008764
 0.029427
 0.051927
 0.067289
 0.056932
 0.041242
 0.039864
 0.032156
 0.027694
 0.059207
 0.108777
 0.119590
 0.096251
 0.091787
 0.095162
 0.069612
 0.027335
 0.012569
 0.012885
 0.025175
 0.050180
 0.075634
 0.061632
 0.011863
 -0.033424
 -0.032316
 0.004426
 0.033943
 0.027958
 0.010395
 0.007405
 0.011250
 0.015357
 0.014076
 0.002550
 -0.003134
 0.017439
 0.053225
 0.076166
 0.059614
 0.021567
 0.000757
 0.003600
 0.018851
 0.014474
 -0.001628
 0.003096
 0.043911
 0.073329
 0.060761
 0.032082
 0.021098
 0.029130
 0.033284
 0.044639
 0.063755
 0.062377
 0.048160
 0.031371
 0.019372
 0.008134
 0.014653
 0.031334
 0.062590
 0.076806
 0.064654
 0.041634
 0.038620
 0.052367
 0.052738
 0.042095
 0.026911
 0.017420
 0.007856
 -0.011848
 -0.014485
 0.012999
 0.055273
 0.079004
 0.055113
 0.000235
 -0.026315
 0.006053
 0.060852
 0.101200
 0.110657
 0.091655
 0.048135
 0.016343
 0.002974
 0.000894
 -0.001872
 0.015628
 0.067290
 0.107899
 0.095419
 0.040664
 -0.004526
 0.000329
 0.016610
 0.010021
 -0.009351
 0.013595
 0.043320
 0.041607
 -0.009902
 -0.048211
 -0.014489
 0.077071
 0.136476
 0.120162
 0.078230
 0.061229
 0.068353
 0.058694
 0.031140
 0.026600
 0.031268
 0.045829
 0.044155
 0.026754
 0.031202
 0.023499
 0.017197
 0.004761
 0.027790
 0.056117
 0.046712
 0.014971
 -0.000527
 0.008727
 0.024735
 0.049933
 0.066287
 0.058332
 0.016686
 0.009568
 0.060082
 0.151833
 0.156834
 0.069629
 0.013567
 0.047710
 0.095884
 0.090939
 0.081848
 0.079326
 0.062409
 0.030610
 0.033018
 0.059703
 0.073407
 0.069606
 0.082600
 0.088273
 0.063924
 0.041754
 0.030359
 0.023921
 0.004430
 -0.012082
 -0.007244
 0.016121
 0.050055
 0.079531
 0.085589
 0.045401
 -0.007010
 -0.011677
 0.038379
 0.072196
 0.070997
 0.061912
 0.066882
 0.077356
 0.083729
 0.079120
 0.057289
 0.025135
 -0.003758
 -0.011255
 0.007868
 0.051734
 0.076327
 0.064238
 0.034921
 0.027439
 0.055650
 0.074749
 0.039448
 -0.012625
 -0.000475
 0.080438
 0.138026
 0.124291
 0.067343
 0.034640
 0.028086
 0.048841
 0.072203
 0.080839
 0.055256
 0.033402
 0.079964
 0.163668
 0.199161
 0.149485
 0.064165
 0.013446
 0.017411
 0.054975
 0.088498
 0.104035
 0.127257
 0.139737
 0.132559
 0.092893
 0.053414
 0.018899
 0.007613
 0.038793
 0.091961
 0.114788
 0.111029
 0.085440
 0.063204
 0.046358
 0.038976
 0.022780
 -0.001384
 -0.000939
 0.038316
 0.078140
 0.075387
 0.058192
 0.066920
 0.101797
 0.110715
 0.094770
 0.076234
 0.059293
 0.064111
 0.053440
 0.021326
 0.012124
 0.044721
 0.084084
 0.089284
 0.051499
 0.029605
 0.023474
 0.019193
 -0.007393
 -0.014954
 0.018852
 0.040411
 0.023474
 0.017889
 0.055482
 0.096340
 0.110409
 0.093297
 0.069022
 0.056287
 0.058413
 0.090293
 0.110597
 0.115929
 0.090492
 0.069687
 0.070763
 0.054775
 0.025155
 0.015644
 0.013791
 0.031065
 0.076437
 0.122942
 0.113311
 0.063512
 0.019548
 0.023939
 0.065075
 0.092211
 0.084514
 0.054005
 0.026908
 0.016241
 0.012776
 0.014397
 0.010697
 0.010828
 0.034421
 0.070694
 0.085936
 0.078635
 0.053978
 0.022146
 0.002836
 -0.002828
 0.002129
 0.004252
 0.029703
 0.075185
 0.108808
 0.097940
 0.068269
 0.046951
 0.028979
 0.007207
 0.015163
 0.030951
 0.045054
 0.051371
 0.047554
 0.030861
 0.008969
 0.014035
 0.056087
 0.117259
 0.145218
 0.110659
 0.053230
 0.023500
 0.042143
 0.068765
 0.070116
 0.059288
 0.054514
 0.036655
 0.008474
 -0.013471
 0.014905
 0.084051
 0.133277
 0.099756
 0.020919
 -0.012853
 0.013576
 0.048177
 0.071887
 0.090601
 0.101266
 0.098823
 0.078932
 0.051383
 0.025673
 0.013132
 0.021504
 0.052968
 0.102026
 0.117239
 0.081664
 0.028146
 0.004446
 0.004342
 0.017662
 0.027617
 0.044218
 0.069904
 0.069911
 0.013598
 -0.031800
 -0.019562
 0.042407
 0.087198
 0.085305
 0.073456
 0.083617
 0.091653
 0.072962
 0.045015
 0.048673
 0.065775
 0.076612
 0.081155
 0.070475
 0.059866
 0.057669
 0.051641
 0.043303
 0.053167
 0.081086
 0.093911
 0.064859
 0.042979
 0.050783
 0.066160
 0.079100
 0.099190
 0.093722
 0.046986
 0.009139
 0.081291
 0.145587
 0.136947
 0.055050
 0.007148
 0.057577
 0.095433
 0.074917
 0.046681
 0.049659
 0.048227
 0.021877
 0.006092
 0.015729
 0.027791
 0.033658
 0.052001
 0.084110
 0.098303
 0.091665
 0.089452
 0.087556
 0.061956
 0.020949
 0.005257
 0.038655
 0.102377
 0.158049
 0.146665
 0.068258
 -0.008319
 -0.010297
 0.048360
 0.096723
 0.098006
 0.068180
 0.040103
 0.029750
 0.046058
 0.072875
 0.076293
 0.047852
 0.012919
 0.010130
 0.050000
 0.097425
 0.102625
 0.067401
 0.025797
 0.031534
 0.081612
 0.100776
 0.060497
 0.017272
 0.051024
 0.131936
 0.162438
 0.120027
 0.054224
 0.023999
 0.041020
 0.061056
 0.069570
 0.050026
 0.019484
 0.020915
 0.080689
 0.159958
 0.164753
 0.111220
 0.043539
 0.011944
 0.039538
 0.078527
 0.083391
 0.075530
 0.098054
 0.131275
 0.127940
 0.092891
 0.059579
 0.044574
 0.042701
 0.069612
 0.087112
 0.091113
 0.075587
 0.072674
 0.082798
 0.077518
 0.049978
 0.019094
 0.001408
 0.010211
 0.041673
 0.073106
 0.068364
 0.041661
 0.033183
 0.059457
 0.089414
 0.093627
 0.079758
 0.067371
 0.074698
 0.084212
 0.069202
 0.042813
 0.033441
 0.057587
 0.068302
 0.054641
 0.049380
 0.059974
 0.037316
 -0.006000
 0.006029
 0.070325
 0.097826
 0.063037
 0.011852
 0.011872
 0.057868
 0.089023
 0.074548
 0.056528
 0.058855
 0.050664
 0.073186
 0.096984
 0.081674
 0.053106
 0.053503
 0.082230
 0.074911
 0.050276
 0.033797
 0.029235
 0.040029
 0.072599
 0.104245
 0.088370
 0.055884
 0.038790
 0.059439
 0.094155
 0.102709
 0.087069
 0.063387
 0.049764
 0.035848
 0.026613
 0.027627
 0.039745
 0.056191
 0.079650
 0.099165
 0.091891
 0.073512
 0.071314
 0.054094
 0.020631
 0.004678
 0.008417
 0.020411
 0.038299
 0.065608
 0.078923
 0.074690
 0.062899
 0.050312
 0.026451
 -0.000846
 -0.001301
 0.012490
 0.020090
 0.030976
 0.043096
 0.025820
 0.011291
 0.029559
 0.089104
 0.150348
 0.152902
 0.083885
 0.007158
 0.002099
 0.062778
 0.113034
 0.107726
 0.076132
 0.046572
 0.032682
 0.027038
 0.018902
 0.035434
 0.077858
 0.107160
 0.095032
 0.039039
 0.022913
 0.042326
 0.050305
 0.050201
 0.078177
 0.108816
 0.121338
 0.105921
 0.087414
 0.069546
 0.047286
 0.033416
 0.027555
 0.054518
 0.088006
 0.085729
 0.044446
 0.010916
 0.012869
 0.025225
 0.044689
 0.060947
 0.067966
 0.062432
 0.037171
 0.002396
 -0.013011
 0.006302
 0.031984
 0.041200
 0.052744
 0.071931
 0.082326
 0.053792
 0.022839
 0.018794
 0.048241
 0.075633
 0.085354
 0.078098
 0.059517
 0.055838
 0.058851
 0.051327
 0.051863
 0.070212
 0.077905
 0.054860
 0.031837
 0.040704
 0.059040
 0.071248
 0.081216
 0.078456
 0.045355
 0.023377
 0.076528
 0.118569
 0.111207
 0.048190
 0.019552
 0.053362
 0.090699
 0.064515
 0.018126
 0.007635
 0.019616
 0.010626
 -0.010747
 -0.007244
 0.013726
 0.029425
 0.039170
 0.058212
 0.072831
 0.079152
 0.088442
 0.103860
 0.096993
 0.061739
 0.024956
 0.045686
 0.117564
 0.170221
 0.164160
 0.098018
 0.019178
 0.011497
 0.042064
 0.079989
 0.094505
 0.060733
 0.013782
 -0.016000
 0.024549
 0.074533
 0.089664
 0.054874
 0.019663
 0.025393
 0.067383
 0.097557
 0.094210
 0.043990
 0.000355
 0.006516
 0.048010
 0.087365
 0.067637
 0.044251
 0.067270
 0.119292
 0.136404
 0.103879
 0.058808
 0.046940
 0.063817
 0.087645
 0.076962
 0.042870
 0.030048
 0.064245
 0.117644
 0.138123
 0.117710
 0.073401
 0.038960
 0.038324
 0.063722
 0.084796
 0.069049
 0.026580
 0.019522
 0.052105
 0.066321
 0.058081
 0.061396
 0.076867
 0.072453
 0.065170
 0.072427
 0.066120
 0.054115
 0.064323
 0.084823
 0.076227
 0.040229
 0.012549
 0.007457
 0.019172
 0.045001
 0.058286
 0.044603
 0.002451
 -0.021606
 -0.005049
 0.037966
 0.069559
 0.074666
 0.062968
 0.058648
 0.078724
 0.091157
 0.069877
 0.050895
 0.037421
 0.026294
 0.016860
 0.028921
 0.059104
 0.049226
 0.018253
 0.040154
 0.110153
 0.135996
 0.087925
 0.018594
 -0.015242
 0.001965
 0.029630
 0.039172
 0.037528
 0.043671
 0.053744
 0.054108
 0.047777
 0.028075
 0.024968
 0.061870
 0.099189
 0.102480
 0.082440
 0.065853
 0.056372
 0.044184
 0.056047
 0.050588
 0.033635
 0.005701
 0.021927
 0.056737
 0.063262
 0.036242
 0.011635
 0.014906
 0.033774
 0.023718
 0.006699
 0.024899
 0.065910
 0.099948
 0.093931
 0.077445
 0.059365
 0.054971
 0.085340
 0.095826
 0.071397
 0.030022
 0.030478
 0.047114
 0.036202
 0.022770
 0.008361
 0.016181
 0.027390
 0.027726
 0.013647
 0.016283
 0.030201
 0.050913
 0.053909
 0.059050
 0.058735
 0.038226
 0.026121
 0.029091
 0.090459
 0.134909
 0.121588
 0.042355
 -0.026453
 0.001265
 0.080990
 0.130620
 0.117976
 0.074465
 0.029746
 0.025580
 0.061000
 0.091080
 0.091695
 0.079690
 0.077671
 0.065575
 0.048535
 0.047423
 0.072524
 0.088107
 0.077507
 0.069531
 0.082977
 0.089140
 0.090560
 0.092243
 0.088163
 0.084104
 0.065605
 0.045122
 0.036597
 0.044861
 0.057413
 0.057394
 0.052782
 0.049422
 0.053226
 0.051890
 0.039570
 0.027673
 0.037145
 0.055051
 0.038902
 0.008537
 -0.010921
 -0.003950
 0.016050
 0.029875
 0.046545
 0.052755
 0.025142
 -0.014297
 -0.017585
 0.007568
 0.044487
 0.066555
 0.066041
 0.040992
 0.023289
 0.026538
 0.028278
 0.030360
 0.040935
 0.044336
 0.023763
 0.014376
 0.031457
 0.045702
 0.047961
 0.048059
 0.039149
 0.021475
 0.017218
 0.064701
 0.052824
 0.051102
 0.040823
 0.065165
 0.099188
 0.097886
 0.054978
 0.011580
 -0.007812
 0.001424
 0.012432
 -0.002617
 0.008341
 0.034458
 0.056479
 0.064619
 0.054358
 0.032734
 0.008995
 0.003928
 0.038598
 0.074542
 0.071008
 0.032118
 0.022435
 0.074678
 0.140566
 0.144667
 0.087755
 0.042009
 0.026207
 0.050312
 0.077933
 0.087337
 0.065575
 0.032572
 0.022773
 0.057761
 0.092782
 0.090172
 0.038630
 0.012288
 0.028305
 0.067730
 0.077618
 0.053604
 0.011587
 -0.020581
 -0.016182
 0.013165
 0.061331
 0.071317
 0.071191
 0.046332
 0.031630
 0.033302
 0.042030
 0.060951
 0.076506
 0.090038
 0.100129
 0.075083
 0.032206
 0.028808
 0.089125
 0.133491
 0.105596
 0.055822
 0.034043
 0.063779
 0.101647
 0.110773
 0.083488
 0.030623
 0.011173
 0.033408
 0.052017
 0.057177
 0.051428
 0.066577
 0.072320
 0.053195
 0.020599
 0.011678
 0.027722
 0.045616
 0.068968
 0.085238
 0.074389
 0.043552
 0.032871
 0.030654
 0.031064
 0.032717
 0.049105
 0.052103
 0.016213
 -0.011208
 0.004771
 0.048411
 0.077586
 0.064457
 0.021392
 0.003828
 0.034778
 0.071052
 0.090849
 0.069268
 0.024873
 -0.013047
 -0.016479
 0.026616
 0.067770
 0.069928
 0.035558
 0.044422
 0.086456
 0.104809
 0.081667
 0.033615
 -0.012379
 -0.025755
 -0.009760
 0.023954
 0.041038
 0.049274
 0.050266
 0.053220
 0.049501
 0.032104
 0.049825
 0.097938
 0.122126
 0.112630
 0.088810
 0.081464
 0.072968
 0.063132
 0.059710
 0.044026
 0.006083
 -0.010606
 0.008531
 0.038121
 0.024689
 -0.017693
 -0.037620
 -0.010235
 0.014799
 -0.002534
 -0.024301
 0.003882
 0.068924
 0.117007
 0.112258
 0.056916
 0.010232
 0.025213
 0.087926
 0.118681
 0.086275
 0.041840
 0.042687
 0.073286
 0.056171
 0.003313
 -0.027611
 -0.017677
 -0.003811
 -0.003072
 -0.005902
 0.024180
 0.088613
 0.140100
 0.139846
 0.098134
 0.075477
 0.047912
 0.026747
 0.028814
 0.040957
 0.061880
 0.041921
 0.002454
 -0.024463
 0.012751
 0.075556
 0.098592
 0.087034
 0.067117
 0.045351
 0.041965
 0.085666
 0.131707
 0.116555
 0.069450
 0.050778
 0.060597
 0.077719
 0.084700
 0.097663
 0.105785
 0.128848
 0.143299
 0.129924
 0.091094
 0.051317
 0.051264
 0.070473
 0.085800
 0.082257
 0.056305
 0.035883
 0.043820
 0.070307
 0.093424
 0.102731
 0.085402
 0.069089
 0.032484
 0.014153
 0.011967
 0.038086
 0.077212
 0.081651
 0.042014
 0.016423
 0.014287
 0.018181
 0.010044
 0.003348
 0.014172
 0.010582
 -0.028021
 -0.051741
 -0.031904
 0.010643
 0.049833
 0.051729
 0.019933
 -0.003401
 0.000590
 0.013184
 0.021473
 0.016317
 0.001618
 -0.003521
 0.018267
 0.044993
 0.050794
 0.021014
 0.011739
 0.010745
 0.004723
 0.004884
 0.021763
 -0.011803
 0.004938
 0.046133
 0.096074
 0.114177
 0.101079
 0.051226
 0.015972
 -0.004358
 0.006922
 0.041170
 0.059799
 0.053693
 0.055660
 0.070953
 0.073505
 0.044496
 -0.001576
 -0.051794
 -0.072229
 -0.041235
 0.014730
 0.038517
 0.020709
 0.010295
 0.036119
 0.060153
 0.062440
 0.045584
 0.036478
 0.045918
 0.065647
 0.078861
 0.086192
 0.078057
 0.068702
 0.066758
 0.099983
 0.112175
 0.083179
 0.032015
 0.011053
 0.023366
 0.036461
 0.046786
 0.035286
 0.028971
 0.012545
 0.003718
 0.017131
 0.051325
 0.086430
 0.064635
 0.024112
 -0.017236
 -0.022938
 0.005552
 0.052868
 0.087563
 0.102719
 0.103614
 0.080640
 0.034314
 0.047229
 0.117207
 0.151336
 0.100427
 0.037527
 0.048609
 0.106326
 0.157571
 0.145592
 0.081903
 0.010949
 0.017083
 0.071803
 0.111763
 0.090280
 0.051593
 0.041894
 0.044273
 0.019835
 -0.011358
 -0.018916
 0.012513
 0.058285
 0.094065
 0.110098
 0.104098
 0.075961
 0.077694
 0.067872
 0.044579
 0.018290
 0.034611
 0.076223
 0.089554
 0.067154
 0.047965
 0.061824
 0.075716
 0.062415
 0.025562
 -0.003152
 0.008103
 0.046528
 0.076872
 0.071084
 0.040343
 0.010895
 0.011725
 0.041417
 0.062089
 0.055298
 0.041642
 0.039807
 0.046064
 0.043206
 0.036030
 0.037241
 0.007208
 -0.001516
 0.018032
 0.057022
 0.075216
 0.063082
 0.060259
 0.053209
 0.037894
 0.043081
 0.090818
 0.141267
 0.139475
 0.104418
 0.078946
 0.063087
 0.047412
 0.046581
 0.062830
 0.065075
 0.042136
 0.021544
 0.030358
 0.035167
 0.005555
 -0.018528
 -0.009840
 0.022648
 0.037947
 0.013647
 -0.012901
 0.017740
 0.094962
 0.134920
 0.090290
 0.017187
 -0.023439
 0.007633
 0.080772
 0.115110
 0.070512
 0.018755
 0.044799
 0.097741
 0.080385
 0.023040
 -0.013613
 0.015874
 0.045954
 0.024249
 -0.013222
 0.018760
 0.119838
 0.194624
 0.184312
 0.112775
 0.047269
 0.018067
 0.005288
 -0.004253
 -0.014094
 -0.015212
 0.000651
 0.013149
 0.024620
 0.035069
 0.038307
 0.038428
 0.059900
 0.091411
 0.108432
 0.116561
 0.139036
 0.155894
 0.127295
 0.079631
 0.064685
 0.077920
 0.094379
 0.101036
 0.107175
 0.115423
 0.128570
 0.124292
 0.114840
 0.077455
 0.017686
 -0.007795
 0.008140
 0.038873
 0.051799
 0.046547
 0.051354
 0.081480
 0.114476
 0.122831
 0.119088
 0.084819
 0.058806
 0.037128
 0.027062
 0.027620
 0.056363
 0.082242
 0.079565
 0.051676
 0.033430
 0.041985
 0.040127
 0.010386
 -0.012166
 0.001993
 0.021525
 0.006583
 -0.022144
 -0.021859
 0.019020
 0.055483
 0.054695
 0.030034
 0.008000
 0.018661
 0.037534
 0.047432
 0.039070
 0.013313
 0.000854
 0.036881
 0.069293
 0.068524
 0.041191
 0.036135
 0.048036
 0.043154
 0.025170
 0.003796
 -0.016419
 -0.011319
 0.054314
 0.113009
 0.110711
 0.069578
 0.044144
 0.029872
 0.013516
 0.019598
 0.057063
 0.076489
 0.064662
 0.039380
 0.037500
 0.048262
 0.037032
 0.006420
 -0.027355
 -0.039088
 -0.030176
 -0.010643
 0.004619
 0.028881
 0.051376
 0.058252
 0.041003
 0.025907
 0.023668
 0.028470
 0.043869
 0.061110
 0.061634
 0.062099
 0.067357
 0.071720
 0.070487
 0.077913
 0.079069
 0.064339
 0.039098
 0.018013
 0.016216
 0.025262
 0.053820
 0.091904
 0.103645
 0.086800
 0.061109
 0.051408
 0.057413
 0.071259
 0.066319
 0.045198
 0.021123
 0.009318
 0.020982
 0.039298
 0.057148
 0.065872
 0.076583
 0.081121
 0.074884
 0.069365
 0.086496
 0.099252
 0.077136
 0.057333
 0.063762
 0.099990
 0.147198
 0.144050
 0.081825
 0.015463
 0.041091
 0.114483
 0.137023
 0.109059
 0.059886
 0.027292
 0.008065
 -0.007316
 -0.016267
 -0.007678
 0.029011
 0.084586
 0.125670
 0.146622
 0.131423
 0.097961
 0.112674
 0.125271
 0.080560
 0.009985
 0.009710
 0.068615
 0.106116
 0.082890
 0.042274
 0.034623
 0.059722
 0.076180
 0.068996
 0.042175
 0.015289
 0.022272
 0.059488
 0.073244
 0.056085
 0.047451
 0.061407
 0.072445
 0.049444
 0.028731
 0.038322
 0.061974
 0.052834
 0.014447
 0.011695
 0.033727
 0.048698
 0.051889
 0.072201
 0.103365
 0.100015
 0.071203
 0.038319
 0.026685
 0.009692
 0.022914
 0.092335
 0.142339
 0.135241
 0.117227
 0.097445
 0.071481
 0.018783
 0.003445
 0.034600
 0.056775
 0.067917
 0.068411
 0.052881
 0.032331
 0.010778
 0.021918
 0.056967
 0.074870
 0.068852
 0.037366
 0.008600
 0.031793
 0.085832
 0.123759
 0.086844
 0.014391
 -0.031519
 -0.002705
 0.057341
 0.069863
 0.028571
 -0.001424
 0.036379
 0.095912
 0.096023
 0.037441
 0.015821
 0.062341
 0.086436
 0.042535
 -0.009058
 0.011663
 0.113356
 0.179613
 0.150205
 0.067006
 0.002668
 -0.002101
 0.009531
 -0.001170
 -0.011796
 -0.014858
 0.009915
 0.049135
 0.076908
 0.068417
 0.038101
 0.021954
 0.059663
 0.112790
 0.142784
 0.127684
 0.111615
 0.107051
 0.090743
 0.082482
 0.087162
 0.085655
 0.100018
 0.106655
 0.107334
 0.096356
 0.078288
 0.087066
 0.087521
 0.065927
 0.027678
 -0.003944
 -0.003858
 0.004114
 0.011717
 0.024602
 0.068682
 0.144083
 0.178120
 0.153417
 0.088591
 0.048360
 0.053121
 0.050448
 0.040113
 0.036026
 0.051994
 0.065138
 0.045310
 0.027373
 0.039186
 0.061495
 0.062894
 0.029787
 -0.004887
 0.006445
 0.037154
 0.057587
 0.047693
 0.033593
 0.040513
 0.051218
 0.057357
 0.046833
 0.036552
 0.040424
 0.059348
 0.085057
 0.088104
 0.041730
 0.004808
 0.034259
 0.066752
 0.057584
 0.055780
 0.077566
 0.112459
 0.119644
 0.078786
 0.028832
 0.026080
 0.020644
 0.074635
 0.111831
 0.090758
 0.053713
 0.046759
 0.075735
 0.053734
 0.040703
 0.062014
 0.080413
 0.055519
 0.020877
 -0.001005
 0.010158
 0.012902
 0.021106
 0.027197
 0.044069
 0.047983
 0.021749
 0.007814
 0.033523
 0.064577
 0.072447
 0.044170
 0.018936
 0.017790
 0.022572
 0.029650
 0.037882
 0.029097
 0.013692
 0.018582
 0.023568
 0.014119
 0.010672
 0.021796
 0.032023
 0.019481
 0.007716
 0.003409
 0.023390
 0.074174
 0.112995
 0.129052
 0.116318
 0.079496
 0.060735
 0.052346
 0.056282
 0.061469
 0.071207
 0.076180
 0.073110
 0.051326
 0.029077
 0.029462
 0.028583
 0.047210
 0.078543
 0.101353
 0.094887
 0.065072
 0.044790
 0.046058
 0.059397
 0.064099
 0.050728
 0.072455
 0.073689
 0.045025
 0.008698
 0.022799
 0.079906
 0.108426
 0.100437
 0.080268
 0.054640
 0.022740
 -0.006863
 -0.017135
 0.001061
 0.040847
 0.092783
 0.133117
 0.132833
 0.086752
 0.071757
 0.105424
 0.125832
 0.089342
 0.013030
 -0.011046
 0.048037
 0.085201
 0.058407
 0.013663
 0.008236
 0.048096
 0.094901
 0.114529
 0.088233
 0.033509
 0.015290
 0.046651
 0.067218
 0.048631
 0.040264
 0.067120
 0.073359
 0.034987
 0.006596
 0.041195
 0.093567
 0.080026
 0.037340
 0.006732
 0.032538
 0.061887
 0.082919
 0.101731
 0.112733
 0.091779
 0.049289
 0.015127
 -0.015502
 -0.037697
 -0.009333
 0.082771
 0.145856
 0.135006
 0.116061
 0.100061
 0.071562
 0.011744
 -0.010596
 0.007448
 0.046521
 0.072743
 0.082759
 0.064375
 0.037598
 0.033246
 0.065133
 0.086602
 0.068194
 0.043593
 0.027627
 0.009883
 0.012475
 0.055314
 0.093291
 0.072851
 0.011574
 -0.026918
 -0.002633
 0.057781
 0.080077
 0.040631
 0.001065
 0.020393
 0.066302
 0.073689
 0.045567
 0.037761
 0.077580
 0.088308
 0.041455
 -0.010646
 0.004664
 0.073110
 0.113224
 0.077488
 0.018227
 -0.000363
 0.018019
 0.030624
 0.033262
 0.037671
 0.041378
 0.054708
 0.082407
 0.105744
 0.081306
 0.050169
 0.041638
 0.070171
 0.104050
 0.113199
 0.110172
 0.087628
 0.048814
 0.037483
 0.053675
 0.065999
 0.053450
 0.034083
 0.039990
 0.061034
 0.056804
 0.038579
 0.029337
 0.035165
 0.049853
 0.051713
 0.047271
 0.040643
 0.027642
 0.014903
 0.025698
 0.081837
 0.154041
 0.170300
 0.111869
 0.036954
 0.036547
 0.078479
 0.098806
 0.071625
 0.023410
 0.009721
 0.008359
 0.007225
 0.019634
 0.048986
 0.082194
 0.089916
 0.062343
 0.011358
 0.003894
 0.039070
 0.085586
 0.104276
 0.093626
 0.066251
 0.046117
 0.042080
 0.062664
 0.072569
 0.054742
 0.054553
 0.089155
 0.098766
 0.055043
 0.013364
 0.018593
 0.038979
 0.037480
 0.049979
 0.082504
 0.117052
 0.130978
 0.116331
 0.073847
 0.057959
 0.044210
 0.090238
 0.139003
 0.121674
 0.089068
 0.109785
 0.126484
 0.090075
 0.046219
 0.050937
 0.073241
 0.066867
 0.035540
 0.006187
 -0.001595
 0.005409
 0.016413
 0.051798
 0.096211
 0.109504
 0.076382
 0.034981
 0.036248
 0.055247
 0.053899
 0.031650
 0.018592
 0.015979
 0.017313
 0.032800
 0.042051
 0.029350
 0.008242
 0.002613
 -0.001428
 -0.011570
 -0.012836
 -0.001901
 0.006852
 0.003902
 0.002642
 0.019297
 0.050966
 0.087860
 0.121954
 0.120084
 0.077478
 0.036815
 0.020141
 0.029299
 0.040763
 0.054186
 0.069192
 0.071696
 0.058142
 0.046937
 0.039716
 0.034577
 0.017064
 0.010107
 0.054697
 0.090490
 0.084414
 0.029929
 0.004383
 0.023441
 0.040071
 0.029697
 0.011859
 0.010488
 0.014422
 -0.004543
 -0.021269
 -0.005436
 0.027323
 0.053177
 0.078776
 0.099532
 0.106587
 0.083622
 0.047315
 0.025162
 0.021353
 0.040361
 0.070071
 0.092587
 0.069029
 0.008785
 0.004251
 0.065045
 0.131854
 0.101277
 0.025406
 0.010495
 0.052493
 0.073059
 0.036111
 -0.005333
 0.009320
 0.058113
 0.116408
 0.141278
 0.111378
 0.052662
 0.043170
 0.073013
 0.062003
 0.015229
 0.007054
 0.050309
 0.090272
 0.065186
 0.028191
 0.047568
 0.103258
 0.114752
 0.064195
 0.015277
 0.013479
 0.045376
 0.074750
 0.084405
 0.074287
 0.055773
 0.035906
 0.012427
 -0.014450
 -0.039931
 -0.017223
 0.054850
 0.107270
 0.117658
 0.106512
 0.095573
 0.072174
 0.042804
 0.023970
 0.020310
 0.030864
 0.055360
 0.073138
 0.065079
 0.051656
 0.057322
 0.085277
 0.077542
 0.038792
 0.017756
 0.017585
 0.009658
 -0.003627
 0.005529
 0.037855
 0.049121
 0.014569
 -0.011648
 0.010146
 0.063258
 0.088862
 0.065774
 0.018427
 0.005763
 0.032783
 0.050979
 0.043299
 0.045006
 0.067602
 0.058858
 0.023002
 0.002710
 0.002948
 0.031020
 0.041056
 0.026425
 0.026280
 0.047920
 0.056814
 0.034195
 0.023931
 0.044137
 0.065285
 0.070989
 0.075189
 0.097054
 0.090309
 0.057756
 0.040476
 0.056689
 0.069036
 0.068232
 0.056941
 0.032333
 -0.010093
 -0.018887
 0.020373
 0.049691
 0.033321
 -0.001988
 -0.017074
 -0.001866
 0.026388
 0.043654
 0.041539
 0.031442
 0.042164
 0.066248
 0.094201
 0.103605
 0.081905
 0.049484
 0.049120
 0.100867
 0.153469
 0.127592
 0.044182
 -0.008981
 0.014433
 0.089213
 0.141080
 0.096190
 0.002390
 -0.040385
 -0.029275
 0.006296
 0.033373
 0.067890
 0.089996
 0.090019
 0.069988
 0.023887
 -0.006326
 0.016934
 0.080665
 0.113781
 0.104780
 0.078318
 0.036446
 0.026498
 0.065014
 0.095621
 0.070776
 0.037212
 0.063440
 0.090062
 0.068562
 0.034343
 0.020844
 0.012796
 0.010786
 0.032500
 0.058760
 0.079557
 0.094892
 0.114145
 0.107093
 0.049587
 0.011119
 0.070463
 0.146114
 0.153712
 0.125802
 0.117726
 0.113181
 0.070656
 0.023031
 0.022510
 0.054684
 0.073006
 0.065975
 0.034932
 0.015638
 0.010893
 0.015767
 0.032930
 0.066797
 0.093068
 0.078158
 0.057182
 0.041586
 0.029398
 0.009888
 -0.000732
 0.002136
 -0.004268
 -0.003000
 0.019851
 0.047408
 0.052634
 0.041754
 0.033307
 0.019457
 0.010828
 0.011830
 0.012013
 0.008501
 -0.008335
 0.008801
 0.046412
 0.062644
 0.071393
 0.060825
 0.046534
 0.011870
 -0.013696
 -0.005891
 0.020950
 0.042820
 0.044509
 0.023696
 0.009305
 0.001418
 0.022226
 0.064411
 0.085042
 0.054890
 0.008172
 -0.001399
 0.016209
 0.022772
 0.020945
 0.030873
 0.039604
 0.034830
 0.024086
 0.025930
 0.049626
 0.034742
 -0.009347
 -0.035355
 -0.024339
 0.003462
 0.028292
 0.052819
 0.086203
 0.109310
 0.100245
 0.081913
 0.057447
 0.035648
 0.037247
 0.064710
 0.092563
 0.052756
 -0.012472
 -0.020528
 0.037660
 0.089219
 0.085081
 0.033539
 0.031467
 0.070414
 0.082311
 0.034914
 0.008306
 0.024487
 0.060828
 0.092091
 0.101201
 0.083428
 0.082615
 0.117808
 0.133739
 0.089404
 0.015666
 -0.003608
 0.055849
 0.102596
 0.091270
 0.054445
 0.031247
 0.059917
 0.082799
 0.059713
 0.013547
 -0.016848
 -0.003962
 0.023756
 0.038244
 0.038509
 0.036391
 0.047132
 0.066907
 0.058814
 0.018008
 0.005223
 0.045986
 0.081993
 0.075832
 0.062326
 0.056290
 0.060043
 0.077189
 0.077454
 0.059670
 0.035222
 0.036789
 0.052589
 0.045109
 0.039092
 0.043641
 0.057371
 0.047990
 0.019404
 0.025304
 0.054169
 0.058486
 0.029305
 0.008285
 0.012539
 0.029756
 0.031536
 0.024579
 0.033652
 0.063828
 0.093231
 0.085604
 0.045131
 0.013389
 0.008589
 0.018065
 0.029619
 0.044570
 0.064455
 0.067647
 0.054474
 0.036321
 0.025413
 0.026605
 0.042692
 0.067695
 0.087854
 0.092498
 0.060523
 0.008955
 -0.006316
 0.014076
 0.018668
 0.018631
 0.030053
 0.057779
 0.070082
 0.054394
 0.035549
 0.035903
 0.041216
 0.045403
 0.049376
 0.036536
 0.010134
 -0.013649
 0.002287
 0.029896
 0.032293
 0.009800
 -0.018899
 -0.015713
 0.029487
 0.082509
 0.095634
 0.059596
 0.024368
 0.041917
 0.094623
 0.119634
 0.096757
 0.047882
 0.036265
 0.081733
 0.103154
 0.082019
 0.015571
 -0.018610
 0.005321
 0.080945
 0.131287
 0.094536
 -0.001709
 -0.054263
 -0.034453
 0.011660
 0.050191
 0.064026
 0.060627
 0.052699
 0.049561
 0.018046
 -0.013863
 0.015138
 0.072148
 0.119539
 0.117129
 0.074462
 0.030278
 0.023744
 0.067468
 0.085431
 0.072503
 0.039420
 0.045469
 0.064705
 0.077756
 0.074173
 0.042337
 0.009215
 0.000010
 0.026428
 0.055469
 0.052060
 0.061032
 0.094858
 0.098669
 0.019913
 -0.037112
 0.013757
 0.101126
 0.129681
 0.116467
 0.095788
 0.058091
 0.001359
 -0.038737
 -0.028691
 0.008631
 0.057819
 0.075160
 0.054512
 0.027499
 0.026248
 0.038224
 0.037743
 0.035321
 0.035435
 0.043697
 0.066153
 0.069720
 0.039924
 0.000340
 -0.009846
 0.003878
 0.009547
 0.008878
 0.018562
 0.030426
 0.036035
 0.042054
 0.054198
 0.052455
 0.040377
 0.040575
 0.045884
 0.034325
 0.025378
 0.037031
 0.072723
 0.086773
 0.076926
 0.055855
 0.040678
 0.011853
 -0.018211
 -0.007564
 0.026961
 0.042617
 0.030034
 0.001380
 -0.019038
 -0.020816
 0.026882
 0.103165
 0.144610
 0.108630
 0.027645
 -0.024356
 -0.022447
 0.017191
 0.069732
 0.105473
 0.085160
 0.029616
 0.003575
 0.047383
 0.109354
 0.108029
 0.042096
 -0.009577
 -0.005408
 0.020163
 0.040091
 0.044900
 0.046819
 0.063149
 0.086109
 0.100512
 0.084845
 0.051596
 0.039168
 0.072132
 0.102191
 0.071877
 0.022623
 0.002922
 0.034670
 0.064920
 0.054113
 0.024362
 0.023107
 0.048839
 0.055873
 0.031911
 0.009049
 0.024475
 0.053794
 0.063521
 0.034129
 0.029288
 0.088403
 0.136525
 0.148190
 0.091094
 0.028327
 0.031320
 0.076628
 0.120593
 0.123532
 0.080083
 0.035148
 0.042730
 0.066297
 0.056889
 0.006852
 -0.037675
 -0.042324
 -0.009546
 0.015266
 0.021793
 0.038451
 0.078823
 0.116504
 0.111121
 0.081464
 0.044133
 0.028899
 0.032839
 0.023643
 0.023846
 0.023992
 0.035241
 0.066420
 0.084381
 0.055418
 0.019078
 0.015137
 0.021839
 0.029221
 0.019971
 0.029180
 0.043838
 0.043538
 0.041422
 0.060270
 0.090156
 0.103918
 0.069988
 0.023224
 0.001752
 0.024052
 0.066241
 0.081206
 0.054558
 0.036304
 0.043421
 0.038515
 0.034867
 0.026995
 0.023411
 0.011345
 0.005664
 0.016577
 0.047326
 0.070557
 0.067844
 0.050892
 0.031306
 0.052267
 0.098050
 0.129019
 0.135660
 0.106855
 0.046577
 0.003217
 0.003858
 0.018770
 0.003458
 -0.030788
 -0.031626
 0.002785
 0.033952
 0.036088
 0.029637
 0.026051
 0.025602
 0.040842
 0.081636
 0.103532
 0.077056
 0.048472
 0.020046
 0.019825
 0.025267
 0.020998
 0.015457
 0.022629
 0.064127
 0.121913
 0.121581
 0.061003
 -0.002687
 0.010508
 0.090325
 0.140065
 0.101989
 0.022512
 -0.005456
 0.024728
 0.057905
 0.050853
 0.031656
 0.017300
 0.006339
 0.036162
 0.081134
 0.070094
 0.013397
 -0.012482
 0.010104
 0.037762
 0.042622
 0.029831
 0.012484
 0.016471
 0.028156
 0.016616
 0.009145
 0.048542
 0.087759
 0.101937
 0.076382
 0.034283
 0.010029
 0.014860
 0.046159
 0.084286
 0.081962
 0.056502
 0.047535
 0.070027
 0.093618
 0.081720
 0.029928
 -0.007636
 0.016069
 0.056200
 0.058901
 0.038214
 0.064517
 0.108636
 0.100580
 0.026279
 -0.038939
 -0.033308
 0.039367
 0.074647
 0.064111
 0.053251
 0.036683
 -0.001122
 -0.039162
 -0.046638
 -0.021806
 0.024981
 0.058818
 0.056479
 0.037502
 0.044869
 0.061554
 0.068970
 0.035211
 0.007805
 0.020098
 0.067887
 0.086381
 0.061482
 0.010228
 0.000984
 0.032699
 0.074547
 0.080531
 0.057093
 0.021680
 -0.000377
 0.025589
 0.061755
 0.061030
 0.034638
 0.027973
 0.053932
 0.066012
 0.050197
 0.037685
 0.058016
 0.074194
 0.069841
 0.061464
 0.055672
 0.043479
 0.024456
 0.019343
 0.026427
 0.020015
 0.008808
 0.015520
 0.021893
 0.025728
 0.060793
 0.120801
 0.147152
 0.110961
 0.039808
 -0.005863
 -0.000478
 0.047770
 0.089450
 0.100600
 0.075467
 0.006769
 -0.026808
 0.022540
 0.102076
 0.124074
 0.076050
 0.031154
 0.040441
 0.068082
 0.070103
 0.059694
 0.051137
 0.054619
 0.078778
 0.092718
 0.084821
 0.055807
 0.034064
 0.054185
 0.084734
 0.083665
 0.052370
 0.030120
 0.030124
 0.032367
 0.019389
 -0.001481
 -0.012713
 0.005994
 0.023727
 0.026377
 0.020656
 0.031189
 0.055912
 0.058792
 0.026167
 0.006522
 0.050619
 0.106968
 0.106447
 0.066037
 0.057166
 0.075319
 0.080965
 0.078999
 0.075406
 0.072303
 0.067149
 0.062349
 0.063743
 0.048460
 0.003289
 -0.042300
 -0.053350
 -0.026754
 0.004112
 0.027444
 0.048898
 0.095781
 0.127232
 0.128039
 0.086670